 Gaussian 09, Revision D.01,

 ----------------------------------------------------------
 #p b3lyp 6-31g(d,p) EmpiricalDispersion=GD3 opt freq=raman
 ----------------------------------------------------------

 gdb 55 4.69474 4.66938 4.47909 1.384 49.04 -0.2601 0.0664 0.3265 449.0
 573 0.134977 -233.560626 -233.553779 -233.552834 -233.589759 25.128
 ----------------------------------------------------------------------
 Symbolic Z-matrix:
 Charge =  0 Multiplicity = 1

 SCF Done:  E(RB3LYP) =  -233.699676023     A.U. after   13 cycles
 SCF Done:  E(RB3LYP) =  -233.699701393     A.U. after    8 cycles
 SCF Done:  E(RB3LYP) =  -233.699703238     A.U. after    7 cycles
 Optimization completed.
    -- Stationary point found.
 Normal termination of Gaussian 09 at Sun Dec  5 16:43:43 2021.

 ----------------------------------------------------------------------
 #P Geom=AllCheck Guess=TCheck SCRF=Check GenChk RB3LYP/6-31G(d,p) Freq
 ----------------------------------------------------------------------

 ----------------------------------------------------------------------
 gdb 55 4.69474 4.66938 4.47909 1.384 49.04 -0.2601 0.0664 0.3265 449.0
 573 0.134977 -233.560626 -233.553779 -233.552834 -233.589759 25.128
 ----------------------------------------------------------------------
 Charge =  0 Multiplicity = 1

 SCF Done:  E(RB3LYP) =  -233.699703238     A.U. after    1 cycles

  Exact polarizability:  49.424   0.000  47.061  -1.152   0.000  46.610
 Approx polarizability:  65.078  -0.001  60.338  -1.197   0.000  66.541

                      1                      2                      3
                      A                      A                      A
 Frequencies --    211.0197               272.2704               280.5689
 Red. masses --      1.0138                 1.0506                 1.0487
 Frc consts  --      0.0266                 0.0459                 0.0486
 IR Inten    --      3.0019                 0.3803                 0.0378
 Raman Activ --      0.0790                 0.0432                 0.0048

                      4                      5                      6
                      A                      A                      A
 Frequencies --    327.6035               347.3385               348.6831
 Red. masses --      1.0629                 2.3415                 2.4225
 Frc consts  --      0.0672                 0.1664                 0.1735
 IR Inten    --     90.5090                 1.3127                18.8302
 Raman Activ --      3.9501                 0.4226                 0.0686

                      7                      8                      9
                      A                      A                      A
 Frequencies --    422.2949               471.1325               471.4634
 Red. masses --      2.1910                 2.5487                 2.8919
 Frc consts  --      0.2302                 0.3333                 0.3787
 IR Inten    --      0.5874                 8.1739                10.5352
 Raman Activ --      0.0969                 0.3516                 0.3654

                     10                     11                     12
                      A                      A                      A
 Frequencies --    755.5707               915.9929               929.1173
 Red. masses --      3.8154                 1.6777                 1.7489
 Frc consts  --      1.2833                 0.8294                 0.8895
 IR Inten    --      2.1595                 0.0050                 2.3572
 Raman Activ --      9.8814                 7.3010                 7.0376

                     13                     14                     15
                      A                      A                      A
 Frequencies --    943.3643               967.8774              1036.7046
 Red. masses --      2.5580                 1.2034                 1.3657
 Frc consts  --      1.3412                 0.6642                 0.8648
 IR Inten    --     36.0333                 0.0002                10.4182
 Raman Activ --      7.7535                 0.0262                 4.3424

                     16                     17                     18
                      A                      A                      A
 Frequencies --   1054.1841              1172.2001              1251.0499
 Red. masses --      1.4067                 1.4449                 2.6230
 Frc consts  --      0.9211                 1.1697                 2.4188
 IR Inten    --      1.9374                55.2874                52.2478
 Raman Activ --      6.4975                 5.2601                 1.0000

                     19                     20                     21
                      A                      A                      A
 Frequencies --   1267.8260              1378.6650              1412.8383
 Red. masses --      2.6304                 1.4688                 1.2825
 Frc consts  --      2.4911                 1.6449                 1.5083
 IR Inten    --     25.7614                34.1183                10.2476
 Raman Activ --      1.3323                 4.0622                 2.6452

                     22                     23                     24
                      A                      A                      A
 Frequencies --   1420.4543              1441.1564              1487.3036
 Red. masses --      1.4183                 1.2460                 1.0478
 Frc consts  --      1.6861                 1.5248                 1.3656
 IR Inten    --     22.8983                 2.4245                 0.0143
 Raman Activ --      1.6429                 0.8772                 0.8717

                     25                     26                     27
                      A                      A                      A
 Frequencies --   1496.4855              1500.2999              1512.7772
 Red. masses --      1.0452                 1.0429                 1.0615
 Frc consts  --      1.3792                 1.3830                 1.4312
 IR Inten    --      0.0055                 0.0014                 1.8912
 Raman Activ --     32.8749                32.8305                 6.6240

                     28                     29                     30
                      A                      A                      A
 Frequencies --   1521.4669              1534.7881              3029.1327
 Red. masses --      1.0935                 1.0599                 1.0376
 Frc consts  --      1.4913                 1.4710                 5.6093
 IR Inten    --      4.6563                 5.0617                16.8137
 Raman Activ --      5.5069                 0.4289                 0.1769

                     31                     32                     33
                      A                      A                      A
 Frequencies --   3034.7020              3051.5463              3097.5348
 Red. masses --      1.0371                 1.0353                 1.0998
 Frc consts  --      5.6275                 5.6803                 6.2174
 IR Inten    --     32.7942                 8.2158                 3.2117
 Raman Activ --    137.3377               160.8949                 8.2317

                     34                     35                     36
                      A                      A                      A
 Frequencies --   3105.0752              3124.1824              3124.9406
 Red. masses --      1.0993                 1.1035                 1.1032
 Frc consts  --      6.2447                 6.3461                 6.3471
 IR Inten    --     60.2819                 4.1737                 3.8558
 Raman Activ --    101.1737                11.9849                19.7667

                     37                     38                     39
                      A                      A                      A
 Frequencies --   3131.8751              3133.2829              3795.7598
 Red. masses --      1.1028                 1.1029                 1.0661
 Frc consts  --      6.3733                 6.3797                 9.0498
 IR Inten    --     39.2662                55.3532                 5.1070
 Raman Activ --     93.5580               112.9839                85.8987

 - Thermochemistry -
 -------------------
 Temperature   298.150 Kelvin.  Pressure   1.00000 Atm.
 Atom     1 has atomic number  6 and mass  12.00000

 Molecular mass:    74.07317 amu.
 Principal axes and moments of inertia in atomic units:
                           1         2         3
     Eigenvalues --   384.61292 386.75330 402.85061
           X            0.98533  -0.00005  -0.17065
           Y            0.00006   1.00000   0.00005
           Z            0.17065  -0.00006   0.98533
 This molecule is an asymmetric top.
 Rotational symmetry number  1.
 Rotational temperatures (Kelvin)      0.22520     0.22395     0.21500
 Rotational constants (GHZ):           4.69236     4.66639     4.47993
 Zero-point vibrational energy     357567.0 (Joules/Mol)
                                   85.46056 (Kcal/Mol)
 Warning -- explicit consideration of   9 degrees of freedom as
           vibrations may cause significant error
 Vibrational temperatures:    303.61   391.74   403.68   471.35   499.74
          (Kelvin)            501.68   607.59   677.85   678.33  1087.10
                             1317.91  1336.79  1357.29  1392.56  1491.58
                             1516.73  1686.53  1799.98  1824.12  1983.59
                             2032.76  2043.71  2073.50  2139.90  2153.11
                             2158.59  2176.55  2189.05  2208.22  4358.24
                             4366.25  4390.49  4456.66  4467.51  4495.00
                             4496.09  4506.06  4508.09  5461.24

 Zero-point correction=                           0.136190 (Hartree/Particle)
 Thermal correction to Energy=                    0.142804
 Thermal correction to Enthalpy=                  0.143749
 Thermal correction to Gibbs Free Energy=         0.107320
 Sum of electronic and zero-point Energies=           -233.563513
 Sum of electronic and thermal Energies=              -233.556899
 Sum of electronic and thermal Enthalpies=            -233.555955
 Sum of electronic and thermal Free Energies=         -233.592383

                     E (Thermal)             CV                S
                      KCal/Mol        Cal/Mol-Kelvin    Cal/Mol-Kelvin
 Total                   89.611             24.638             76.671
 Electronic               0.000              0.000              0.000
 Translational            0.889              2.981             38.823
 Rotational               0.889              2.981             25.597
 Vibrational             87.834             18.676             12.250
 Vibration     1          0.643              1.824              2.035
 Vibration     2          0.675              1.724              1.582
 Vibration     3          0.680              1.710              1.530
 Vibration     4          0.711              1.620              1.272
 Vibration     5          0.725              1.581              1.178
 Vibration     6          0.726              1.578              1.172
 Vibration     7          0.785              1.422              0.884
 Vibration     8          0.828              1.314              0.734
 Vibration     9          0.828              1.313              0.733

 Optimization completed.
    -- Stationary point found.
 Normal termination of Gaussian 09 at Sun Dec  5 16:43:59 2021.

 ----------------------------------------------------------------------
 #p b3lyp 6-311+g(2d,2p) EmpiricalDispersion=GD3 geom=allcheck guess=re
 ad scf=(fermi,xqc)
 ----------------------------------------------------------------------

 ----------------------------------------------------------------------
 gdb 55 4.69474 4.66938 4.47909 1.384 49.04 -0.2601 0.0664 0.3265 449.0
 573 0.134977 -233.560626 -233.553779 -233.552834 -233.589759 25.128
 ----------------------------------------------------------------------
 Charge =  0 Multiplicity = 1

 SCF Done:  E(RB3LYP) =  -233.772625431     A.U. after   10 cycles
 Normal termination of Gaussian 09 at Sun Dec  5 16:44:09 2021.
 Gaussian 09:  EM64L-G09RevD.01 24-Apr-2013

 ----------------------------------------------------------------------
 #p b3lyp 6-311+g(2d,p) EmpiricalDispersion=GD3 NMR geom=allcheck guess
 =read
 ----------------------------------------------------------------------

 ----------------------------------------------------------------------
 gdb 55 4.69474 4.66938 4.47909 1.384 49.04 -0.2601 0.0664 0.3265 449.0
 573 0.134977 -233.560626 -233.553779 -233.552834 -233.589759 25.128
 ----------------------------------------------------------------------
 Charge =  0 Multiplicity = 1

                         Standard orientation:
 ---------------------------------------------------------------------
 Center     Atomic      Atomic             Coordinates (Angstroms)
 Number     Number       Type             X           Y           Z
 ---------------------------------------------------------------------
      1          6           0       -0.691817    1.264495   -0.508041
      2          6           0        0.005059   -0.000003    0.014973
      3          6           0       -0.692249   -1.264250   -0.508064
      4          6           0        1.487543   -0.000246   -0.362302
      5          8           0       -0.008052   -0.000016    1.451602
      6          1           0       -1.747599    1.275649   -0.210489
      7          1           0       -0.211293    2.156273   -0.095556
      8          1           0       -0.653662    1.318974   -1.601025
      9          1           0       -0.654114   -1.318727   -1.601048
     10          1           0       -0.212043   -2.156204   -0.095591
     11          1           0       -1.748039   -1.275039   -0.210518
     12          1           0        1.980257    0.885568    0.048681
     13          1           0        1.979960   -0.886245    0.048637
     14          1           0        1.612829   -0.000243   -1.449186
     15          1           0       -0.933096    0.000144    1.733893
 ---------------------------------------------------------------------

 SCF Done:  E(RB3LYP) =  -233.767757924     A.U. after    8 cycles

      1  C    Isotropic =   149.3254   Anisotropy =    51.0548

      2  C    Isotropic =   108.6004   Anisotropy =    54.9194

      3  C    Isotropic =   149.3257   Anisotropy =    51.0549

      4  C    Isotropic =   153.4709   Anisotropy =    45.4170

      5  O    Isotropic =   223.8676   Anisotropy =    73.0921

      6  H    Isotropic =    30.9527   Anisotropy =     7.0146

      7  H    Isotropic =    30.4998   Anisotropy =     7.2074

      8  H    Isotropic =    30.6318   Anisotropy =     8.0940

      9  H    Isotropic =    30.6318   Anisotropy =     8.0941

     10  H    Isotropic =    30.4998   Anisotropy =     7.2076

     11  H    Isotropic =    30.9527   Anisotropy =     7.0146

     12  H    Isotropic =    30.6040   Anisotropy =     7.5759

     13  H    Isotropic =    30.6040   Anisotropy =     7.5759

     14  H    Isotropic =    30.9732   Anisotropy =     7.7707

     15  H    Isotropic =    32.0379   Anisotropy =    14.4233

 The electronic state is 1-A.
 Alpha  occ. eigenvalues --  -19.12028 -10.23103 -10.16251 -10.16250 -10.15702
 Alpha  occ. eigenvalues --   -1.02344  -0.79198  -0.69552  -0.69447  -0.57401
 Alpha  occ. eigenvalues --   -0.49427  -0.45660  -0.45351  -0.41748  -0.40279
 Alpha  occ. eigenvalues --   -0.38514  -0.37139  -0.36104  -0.35337  -0.32543
 Alpha  occ. eigenvalues --   -0.27768
 Alpha virt. eigenvalues --   -0.00458   0.02557   0.03027   0.03454   0.04643
 Alpha virt. eigenvalues --    0.05837   0.05984   0.06906   0.07003   0.07804
 Alpha virt. eigenvalues --    0.10362   0.10794   0.10965   0.12217   0.13031

 Mulliken charges:
               1
     1  C   -0.439968
     2  C    0.369063
     3  C   -0.439971
     4  C   -0.369592
     5  O   -0.441397
     6  H    0.108039
     7  H    0.130112
     8  H    0.118588
     9  H    0.118587
    10  H    0.130112
    11  H    0.108039
    12  H    0.125255
    13  H    0.125254
    14  H    0.113862
    15  H    0.244016
 Sum of Mulliken charges =   0.00000

 Dipole moment (field-independent basis, Debye):
    X=             -1.2059    Y=              0.0002    Z=             -1.1451  Tot=              1.6630
 Quadrupole moment (field-independent basis, Debye-Ang):
   XX=            -32.3043   YY=            -34.1649   ZZ=            -35.2706
   XY=             -0.0003   XZ=             -2.8375   YZ=              0.0005

 Normal termination of Gaussian 09 at Sun Dec  5 16:44:22 2021.
